UNL
    32
  19.7320000   0.2620000  52.0400000  20.0150000  -0.4090000  53.2440000
  21.3080000  -0.6190000  53.6980000  21.4910000  -1.2720000  54.8570000
  22.7520000  -1.4390000  55.2680000  23.8380000  -0.9920000  54.6410000
  23.6410000  -0.3350000  53.4780000  22.3600000  -0.1270000  52.9220000
  22.0830000   0.4830000  51.6520000  20.7710000   0.6490000  51.1740000
  17.5760000  -0.6830000  52.2210000  18.3900000   0.4030000  51.7850000
  24.7760000   0.2180000  52.8250000  24.6130000   1.2110000  52.6920000
  26.1290000  -0.0750000  53.1220000  26.7010000  -1.3090000  52.7780000
  28.0600000  -1.5600000  52.9820000  28.8670000  -0.5660000  53.5140000
  30.1690000  -0.8290000  53.7020000  28.3280000   0.6760000  53.8320000
  29.3260000   1.9230000  54.4820000  26.9660000   0.9260000  53.6380000
  20.4360000   1.1220000  49.9250000  21.4690000   1.3150000  48.9420000
  21.7980000   2.8090000  48.6830000  21.7500000   3.9270000  49.7740000
  22.9960000   4.6710000  50.0690000  24.2380000   3.9620000  49.6170000
  24.7700000   2.8310000  50.5290000  24.8310000   3.2220000  51.9050000
  23.5680000   3.7390000  52.3360000  23.1810000   4.9700000  51.5010000
