UNL_GMX.gro created by acpype (v: 2023.10.27) on Fri Sep  5 17:29:03 2025
 32
    1  UNL    C    1   1.973   0.026   5.204
    1  UNL   C1    2   2.002  -0.041   5.324
    1  UNL   C2    3   2.131  -0.062   5.370
    1  UNL    N    4   2.149  -0.127   5.486
    1  UNL   C3    5   2.275  -0.144   5.527
    1  UNL   N1    6   2.384  -0.099   5.464
    1  UNL   C4    7   2.364  -0.034   5.348
    1  UNL   C5    8   2.236  -0.013   5.292
    1  UNL   C6    9   2.208   0.048   5.165
    1  UNL   C7   10   2.077   0.065   5.117
    1  UNL   C8   11   1.758  -0.068   5.222
    1  UNL    O   12   1.839   0.040   5.178
    1  UNL   N2   13   2.478   0.022   5.283
    1  UNL    H   14   2.461   0.121   5.269
    1  UNL   C9   15   2.613  -0.007   5.312
    1  UNL  C10   16   2.670  -0.131   5.278
    1  UNL  C11   17   2.806  -0.156   5.298
    1  UNL  C12   18   2.887  -0.057   5.351
    1  UNL    F   19   3.017  -0.083   5.370
    1  UNL  C13   20   2.833   0.068   5.383
    1  UNL   CL   21   2.933   0.192   5.448
    1  UNL  C14   22   2.697   0.093   5.364
    1  UNL   O1   23   2.044   0.112   4.992
    1  UNL  C15   24   2.147   0.132   4.894
    1  UNL  C16   25   2.180   0.281   4.868
    1  UNL  C17   26   2.175   0.393   4.977
    1  UNL   N3   27   2.300   0.467   5.007
    1  UNL  C18   28   2.424   0.396   4.962
    1  UNL  C19   29   2.477   0.283   5.053
    1  UNL   O2   30   2.483   0.322   5.191
    1  UNL  C20   31   2.357   0.374   5.234
    1  UNL  C21   32   2.318   0.497   5.150
   25.18600    13.06000    13.17000
