%VERSION  VERSION_STAMP = V0001.000  DATE = 09/05/25  17:28:58                  
%FLAG TITLE                                                                     
%FORMAT(20a4)                                                                   
UNL                                                                             
%FLAG POINTERS                                                                  
%FORMAT(10I8)                                                                   
      32       7       1      34       2      46       4      68       0       0
     137       1      34      46      68      12      26       6       8       0
       0       0       0       0       0       0       0       0      32       0
       0
%FLAG ATOM_NAME                                                                 
%FORMAT(20a4)                                                                   
C   C1  C2  N   C3  N1  C4  C5  C6  C7  C8  O   N2  H   C9  C10 C11 C12 F   C13 
Cl  C14 O1  C15 C16 C17 N3  C18 C19 O2  C20 C21 
%FLAG CHARGE                                                                    
%FORMAT(5E16.8)                                                                 
  3.23498670E+00 -9.63121444E-01  2.50975738E+00 -3.23157913E+00  1.86332129E+00
 -3.16147794E+00  2.56119893E+00  1.67789116E+00 -1.25292890E+00  3.20985815E+00
  1.66203776E+00 -4.49680808E+00 -4.13926833E+00  2.49866000E+00  2.12328062E+00
 -6.93194514E-01 -4.89141199E-01  3.63742619E+00 -3.54788181E+00  2.35463094E+00
 -1.29432997E+00 -1.22836524E+00 -4.51599616E+00  1.35541112E+00  4.00234597E-01
  4.39230319E-01 -1.49309882E+00  7.39388045E-01  1.64035322E+00 -3.78019791E+00
  1.64035322E+00  7.39388045E-01
%FLAG ATOMIC_NUMBER                                                             
%FORMAT(10I8)                                                                   
       6       6       6       7       6       7       6       6       6       6
       6       8       7       1       6       6       6       6       9       6
      17       6       8       6       6       6       7       6       6       8
       6       6
%FLAG MASS                                                                      
%FORMAT(5E16.8)                                                                 
  1.20100000E+01  1.20100000E+01  1.20100000E+01  1.40100000E+01  1.20100000E+01
  1.40100000E+01  1.20100000E+01  1.20100000E+01  1.20100000E+01  1.20100000E+01
  1.20100000E+01  1.60000000E+01  1.40100000E+01  1.00800000E+00  1.20100000E+01
  1.20100000E+01  1.20100000E+01  1.20100000E+01  1.90000000E+01  1.20100000E+01
  3.54500000E+01  1.20100000E+01  1.60000000E+01  1.20100000E+01  1.20100000E+01
  1.20100000E+01  1.40100000E+01  1.20100000E+01  1.20100000E+01  1.60000000E+01
  1.20100000E+01  1.20100000E+01
%FLAG ATOM_TYPE_INDEX                                                           
%FORMAT(10I8)                                                                   
       1       2       1       3       2       3       1       1       2       1
       2       4       3       5       1       2       2       1       6       1
       7       2       4       2       2       2       3       2       2       4
       2       2
%FLAG NUMBER_EXCLUDED_ATOMS                                                     
%FORMAT(10I8)                                                                   
      10      10       9       5       4       6       8       6       5       5
       1       1       6       3       6       5       5       4       3       2
       1       1       3       3       4       5       5       4       3       2
       1       1
%FLAG NONBONDED_PARM_INDEX                                                      
%FORMAT(10I8)                                                                   
       1       2       4       7      11      16      22       2       3       5
       8      12      17      23       4       5       6       9      13      18
      24       7       8       9      10      14      19      25      11      12
      13      14      15      20      26      16      17      18      19      20
      21      27      22      23      24      25      26      27      28
%FLAG RESIDUE_LABEL                                                             
%FORMAT(20a4)                                                                   
UNL 
%FLAG RESIDUE_POINTER                                                           
%FORMAT(10I8)                                                                   
       1
%FLAG BOND_FORCE_CONSTANT                                                       
%FORMAT(5E16.8)                                                                 
  6.25000000E+02  5.69400000E+02  3.89200000E+02  5.94100000E+02  8.07800000E+02
  4.86300000E+02  4.47500000E+02  3.92400000E+02  9.23700000E+02  3.70600000E+02
  3.21300000E+02  4.74300000E+02
%FLAG BOND_EQUIL_VALUE                                                          
%FORMAT(5E16.8)                                                                 
  1.30700000E+00  1.33430000E+00  1.35960000E+00  1.28170000E+00  1.19710000E+00
  1.34000000E+00  1.31810000E+00  1.01900000E+00  1.19830000E+00  1.33850000E+00
  1.73080000E+00  1.34750000E+00
%FLAG ANGLE_FORCE_CONSTANT                                                      
%FORMAT(5E16.8)                                                                 
  5.83000000E+01  7.01000000E+01  7.07000000E+01  6.65390000E+01  7.32040000E+01
  7.52180000E+01  7.29190000E+01  6.93000000E+01  7.12000000E+01  6.67000000E+01
  7.18000000E+01  4.91000000E+01  6.62000000E+01  7.01000000E+01  7.28220000E+01
  6.05000000E+01  7.23000000E+01  6.80000000E+01  5.80000000E+01  6.79000000E+01
  6.80000000E+01  6.25000000E+01  6.35000000E+01  6.08000000E+01  6.62000000E+01
  6.73000000E+01
%FLAG ANGLE_EQUIL_VALUE                                                         
%FORMAT(5E16.8)                                                                 
  3.13059842E+00  2.12267035E+00  2.12703367E+00  1.99107246E+00  2.02301200E+00
  2.01227822E+00  2.08811281E+00  2.12598647E+00  2.19929033E+00  3.14159400E+00
  2.16892159E+00  2.08357495E+00  2.17607744E+00  2.17380852E+00  2.05285715E+00
  3.14159400E+00  2.03802184E+00  2.17991717E+00  2.14867576E+00  2.14448697E+00
  2.17991717E+00  3.08801237E+00  3.14159400E+00  3.14159400E+00  2.15269002E+00
  2.00747857E+00
%FLAG DIHEDRAL_FORCE_CONSTANT                                                   
%FORMAT(5E16.8)                                                                 
  0.00000000E+00  1.05000000E+00  6.65000000E+00  4.15000000E+00  3.00000000E-01
  1.10000000E+00
%FLAG DIHEDRAL_PERIODICITY                                                      
%FORMAT(5E16.8)                                                                 
  2.00000000E+00  2.00000000E+00  2.00000000E+00  2.00000000E+00  2.00000000E+00
  2.00000000E+00
%FLAG DIHEDRAL_PHASE                                                            
%FORMAT(5E16.8)                                                                 
  3.14159400E+00  3.14159400E+00  3.14159400E+00  3.14159400E+00  3.14159400E+00
  3.14159400E+00
%FLAG SCEE_SCALE_FACTOR                                                         
%FORMAT(5E16.8)                                                                 
  1.20000000E+00  1.20000000E+00  1.20000000E+00  1.20000000E+00  1.20000000E+00
  0.00000000E+00
%FLAG SCNB_SCALE_FACTOR                                                         
%FORMAT(5E16.8)                                                                 
  2.00000000E+00  2.00000000E+00  2.00000000E+00  2.00000000E+00  2.00000000E+00
  0.00000000E+00
%FLAG SOLTY                                                                     
%FORMAT(5E16.8)                                                                 
  0.00000000E+00  0.00000000E+00  0.00000000E+00  0.00000000E+00  0.00000000E+00
  0.00000000E+00  0.00000000E+00  0.00000000E+00
%FLAG LENNARD_JONES_ACOEF                                                       
%FORMAT(5E16.8)                                                                 
  8.19971662E+05  1.28132490E+06  2.00225638E+06  8.82619071E+05  1.37922058E+06
  9.44293233E+05  5.57281136E+05  8.70832771E+05  5.89818288E+05  3.61397723E+05
  2.27577561E+03  3.55623015E+03  2.12601181E+03  1.03954408E+03  1.39982777E-01
  4.15756030E+05  6.49679224E+05  4.42327516E+05  2.73550530E+05  8.77867742E+02
  2.06132451E+05  1.63123475E+06  2.54904139E+06  1.76079018E+06  1.11729277E+06
  4.83020816E+03  8.31554535E+05  3.24095688E+06
%FLAG LENNARD_JONES_BCOEF                                                       
%FORMAT(5E16.8)                                                                 
  5.31102864E+02  8.29925416E+02  1.29687909E+03  6.53361429E+02  1.02097219E+03
  8.01323529E+02  5.19163331E+02  8.11268160E+02  6.33305958E+02  4.95732238E+02
  1.82891803E+01  2.85795023E+01  2.09604198E+01  1.46567808E+01  9.37598976E-02
  3.47061425E+02  5.42333919E+02  4.24469669E+02  3.33805482E+02  1.04244203E+01
  2.24268406E+02  9.92485818E+02  1.55090334E+03  1.22266505E+03  9.73951183E+02
  3.53019992E+01  6.50308291E+02  1.85348706E+03
%FLAG BONDS_INC_HYDROGEN                                                        
%FORMAT(10I8)                                                                   
      36      39       8
%FLAG BONDS_WITHOUT_HYDROGEN                                                    
%FORMAT(10I8)                                                                   
       0       3       1       0      27       2       0      33       3       3
       6       1       6       9       4       6      21       2       9      12
       5      12      15       5      15      18       4      18      21       2
      18      36       6      21      24       1      24      27       1      27
      66       3      30      33       7      36      42       6      42      45
       1      42      63       1      45      48       9      48      51       1
      51      54      10      51      57       2      57      60      11      57
      63       1      66      69       7      69      72       9      72      75
       9      75      78      12      78      81      12      78      93      12
      81      84       9      84      87       7      87      90       7      90
      93       9
%FLAG ANGLES_INC_HYDROGEN                                                       
%FORMAT(10I8)                                                                   
      18      36      39      12      39      36      42      12
%FLAG ANGLES_WITHOUT_HYDROGEN                                                   
%FORMAT(10I8)                                                                   
       0       3       6       1       0      27      24       2       0      27
      66       3       0      33      30       4       3       0      27       2
       3       0      33       5       3       6       9       6       3       6
      21       2       6       9      12       7       6      21      18       8
       6      21      24       2       9       6      21       9       9      12
      15      10      12      15      18       7      15      18      21       9
      15      18      36      11      18      21      24       2      18      36
      42      13      21      18      36      14      21      24      27       1
      24      27      66       5      27       0      33       3      27      66
      69       4      36      42      45      15      36      42      63      15
      42      45      48      16      42      63      57       1      45      42
      63      17      45      48      51      16      48      51      54      18
      48      51      57       2      51      57      60      19      51      57
      63       2      54      51      57      20      60      57      63      21
      66      69      72      22      69      72      75      23      72      75
      78      24      75      78      81      25      75      78      93      25
      78      81      84      24      78      93      90      24      81      78
      93      25      81      84      87      22      84      87      90      26
      87      90      93      22
%FLAG DIHEDRALS_INC_HYDROGEN                                                    
%FORMAT(10I8)                                                                   
      15      18      36      39       5      21      18      36      39       5
      39      36      42      45       5      39      36      42      63       5
%FLAG DIHEDRALS_WITHOUT_HYDROGEN                                                
%FORMAT(10I8)                                                                   
       0       3       6       9       1       0       3       6      21       1
       0      27     -24      21       1       0      27      66      69       2
       3       0      27      24       3       3       0      27      66       3
       3       0      33      30       2       3       6       9      12       4
       3       6      21      18       3       3       6     -21      24       3
      27       0       3       6       1      33       0       3       6       1
       6       9      12      15       1       6      21     -18      15       3
       6      21      18      36       3       6      21     -24      27       1
       9       6      21      18       3       9       6      21      24       3
       9      12     -15      18       1      12       9       6      21       4
      12      15     -18      21       4      12      15      18      36       4
      15      18      21      24       3      15      18      36      42       5
      18      21      24      27       1      18      36      42      45       5
      18      36      42      63       5      21      18      36      42       5
      21      24      27      66       1      24      21      18      36       3
      33       0      27      24       3      24      27      66      69       2
      27       0      33      30       2      27      66      69      72       1
      33       0      27      66       3      36      42      45      48       1
      36      42      63      57       1      42      45      48      51       1
      42      63     -57      51       1      42      63      57      60       1
      45      42      63      57       1      45      48      51      54       1
      45      48     -51      57       1      48      45      42      63       1
      48      51      57      60       3      48      51     -57      63       3
      54      51      57      60       3      54      51      57      63       3
      66      69      72      75       1      69      72      75      78       1
      72      75      78      81       1      72      75      78      93       1
      75      78      81      84       1      75      78      93      90       1
      78      81      84      87       1      78      93     -90      87       1
      81      78      93      90       1      81      84     -87      90       1
      84      81      78      93       1      84      87     -90      93       1
      33       0     -27      -3       6       3      21      -6      -9       6
      21      15     -18     -36       6      24       6     -21     -18       6
      24       0     -27     -66       6      45      63     -42     -36       6
      48      57     -51     -54       6      63      51     -57     -60       6
%FLAG EXCLUDED_ATOMS_LIST                                                       
%FORMAT(10I8)                                                                   
       2       3       4       8       9      10      11      12      23      24
       3       4       5       7       8       9      10      11      12      23
       4       5       6       7       8       9      10      12      13       5
       6       7       8       9       6       7       8      13       7       8
       9      13      14      15       8       9      10      13      14      15
      16      22       9      10      13      14      15      23      10      12
      13      23      24      11      12      23      24      25      12      23
      14      15      16      17      20      22      15      16      22      16
      17      18      20      21      22      17      18      19      20      22
      18      19      20      21      22      19      20      21      22      20
      21      22      21      22      22       0      24      25      26      25
      26      27      26      27      28      32      27      28      29      31
      32      28      29      30      31      32      29      30      31      32
      30      31      32      31      32      32       0
%FLAG HBOND_ACOEF                                                               
%FORMAT(5E16.8)                                                                 

%FLAG HBOND_BCOEF                                                               
%FORMAT(5E16.8)                                                                 

%FLAG HBCUT                                                                     
%FORMAT(5E16.8)                                                                 

%FLAG AMBER_ATOM_TYPE                                                           
%FORMAT(20a4)                                                                   
c2  c1  c2  n2  c1  n2  c2  c2  c1  c2  c1  os  n3  hn  c2  c1  c1  c2  f   c2  
cl  c1  os  c1  c1  c1  n3  c1  c1  os  c1  c1  
%FLAG TREE_CHAIN_CLASSIFICATION                                                 
%FORMAT(20a4)                                                                   
BLA BLA BLA BLA BLA BLA BLA BLA BLA BLA BLA BLA BLA BLA BLA BLA BLA BLA BLA BLA 
BLA BLA BLA BLA BLA BLA BLA BLA BLA BLA BLA BLA 
%FLAG JOIN_ARRAY                                                                
%FORMAT(10I8)                                                                   
       0       0       0       0       0       0       0       0       0       0
       0       0       0       0       0       0       0       0       0       0
       0       0       0       0       0       0       0       0       0       0
       0       0
%FLAG IROTAT                                                                    
%FORMAT(10I8)                                                                   
       0       0       0       0       0       0       0       0       0       0
       0       0       0       0       0       0       0       0       0       0
       0       0       0       0       0       0       0       0       0       0
       0       0
%FLAG RADIUS_SET                                                                
%FORMAT(1a80)                                                                   
modified Bondi radii (mbondi)                                                   
%FLAG RADII                                                                     
%FORMAT(5E16.8)                                                                 
  1.70000000E+00  1.70000000E+00  1.70000000E+00  1.55000000E+00  1.70000000E+00
  1.55000000E+00  1.70000000E+00  1.70000000E+00  1.70000000E+00  1.70000000E+00
  1.70000000E+00  1.50000000E+00  1.55000000E+00  1.30000000E+00  1.70000000E+00
  1.70000000E+00  1.70000000E+00  1.70000000E+00  1.50000000E+00  1.70000000E+00
  1.70000000E+00  1.70000000E+00  1.50000000E+00  1.70000000E+00  1.70000000E+00
  1.70000000E+00  1.55000000E+00  1.70000000E+00  1.70000000E+00  1.50000000E+00
  1.70000000E+00  1.70000000E+00
%FLAG SCREEN                                                                    
%FORMAT(5E16.8)                                                                 
  7.20000000E-01  7.20000000E-01  7.20000000E-01  7.90000000E-01  7.20000000E-01
  7.90000000E-01  7.20000000E-01  7.20000000E-01  7.20000000E-01  7.20000000E-01
  7.20000000E-01  8.50000000E-01  7.90000000E-01  8.50000000E-01  7.20000000E-01
  7.20000000E-01  7.20000000E-01  7.20000000E-01  8.80000000E-01  7.20000000E-01
  8.00000000E-01  7.20000000E-01  8.50000000E-01  7.20000000E-01  7.20000000E-01
  7.20000000E-01  7.90000000E-01  7.20000000E-01  7.20000000E-01  8.50000000E-01
  7.20000000E-01  7.20000000E-01
%FLAG IPOL                                                                      
%FORMAT(1I8)                                                                    
       0
