[ moleculetype ]
;name            nrexcl
 UNL              3

[ atoms ]
;   nr  type  resi  res  atom  cgnr     charge      mass       ; qtot   bond_type
     1   c2     1   UNL     C    1     0.177529     12.01000 ; qtot 0.178
     2   c1     1   UNL    C1    2    -0.052854     12.01000 ; qtot 0.125
     3   c2     1   UNL    C2    3     0.137730     12.01000 ; qtot 0.262
     4   n2     1   UNL     N    4    -0.177342     14.01000 ; qtot 0.085
     5   c1     1   UNL    C3    5     0.102255     12.01000 ; qtot 0.187
     6   n2     1   UNL    N1    6    -0.173495     14.01000 ; qtot 0.014
     7   c2     1   UNL    C4    7     0.140553     12.01000 ; qtot 0.154
     8   c2     1   UNL    C5    8     0.092079     12.01000 ; qtot 0.246
     9   c1     1   UNL    C6    9    -0.068758     12.01000 ; qtot 0.178
    10   c2     1   UNL    C7   10     0.176150     12.01000 ; qtot 0.354
    11   c1     1   UNL    C8   11     0.091209     12.01000 ; qtot 0.445
    12   os     1   UNL     O   12    -0.246775     16.00000 ; qtot 0.198
    13   n3     1   UNL    N2   13    -0.227154     14.01000 ; qtot -0.029
    14   hn     1   UNL     H   14     0.137121      1.00800 ; qtot 0.108
    15   c2     1   UNL    C9   15     0.116521     12.01000 ; qtot 0.225
    16   c1     1   UNL   C10   16    -0.038041     12.01000 ; qtot 0.187
    17   c1     1   UNL   C11   17    -0.026843     12.01000 ; qtot 0.160
    18   c2     1   UNL   C12   18     0.199614     12.01000 ; qtot 0.359
    19    f     1   UNL     F   19    -0.194700     19.00000 ; qtot 0.165
    20   c2     1   UNL   C13   20     0.129217     12.01000 ; qtot 0.294
    21   cl     1   UNL    CL   21    -0.071030     35.45000 ; qtot 0.223
    22   c1     1   UNL   C14   22    -0.067410     12.01000 ; qtot 0.156
    23   os     1   UNL    O1   23    -0.247829     16.00000 ; qtot -0.092
    24   c1     1   UNL   C15   24     0.074382     12.01000 ; qtot -0.018
    25   c1     1   UNL   C16   25     0.021964     12.01000 ; qtot 0.004
    26   c1     1   UNL   C17   26     0.024104     12.01000 ; qtot 0.028
    27   n3     1   UNL    N3   27    -0.081938     14.01000 ; qtot -0.054
    28   c1     1   UNL   C18   28     0.040576     12.01000 ; qtot -0.013
    29   c1     1   UNL   C19   29     0.090019     12.01000 ; qtot 0.077
    30   os     1   UNL    O2   30    -0.207449     16.00000 ; qtot -0.131
    31   c1     1   UNL   C20   31     0.090019     12.01000 ; qtot -0.041
    32   c1     1   UNL   C21   32     0.040576     12.01000 ; qtot -0.000

[ bonds ]
;   ai     aj funct   r             k
     1      2   1    1.3070e-01    5.2300e+05 ;      C - C1    
     1     10   1    1.3343e-01    4.7647e+05 ;      C - C7    
     1     12   1    1.3596e-01    3.2568e+05 ;      C - O     
     2      3   1    1.3070e-01    5.2300e+05 ;     C1 - C2    
     3      4   1    1.2817e-01    4.9714e+05 ;     C2 - N     
     3      8   1    1.3343e-01    4.7647e+05 ;     C2 - C5    
     4      5   1    1.1971e-01    6.7597e+05 ;      N - C3    
     5      6   1    1.1971e-01    6.7597e+05 ;     C3 - N1    
     6      7   1    1.2817e-01    4.9714e+05 ;     N1 - C4    
     7      8   1    1.3343e-01    4.7647e+05 ;     C4 - C5    
     7     13   1    1.3400e-01    4.0694e+05 ;     C4 - N2    
     8      9   1    1.3070e-01    5.2300e+05 ;     C5 - C6    
     9     10   1    1.3070e-01    5.2300e+05 ;     C6 - C7    
    10     23   1    1.3596e-01    3.2568e+05 ;     C7 - O1    
    11     12   1    1.3181e-01    3.7447e+05 ;     C8 - O     
    13     14   1    1.0190e-01    3.2836e+05 ;     N2 - H     
    13     15   1    1.3400e-01    4.0694e+05 ;     N2 - C9    
    15     16   1    1.3070e-01    5.2300e+05 ;     C9 - C10   
    15     22   1    1.3070e-01    5.2300e+05 ;     C9 - C14   
    16     17   1    1.1983e-01    7.7295e+05 ;    C10 - C11   
    17     18   1    1.3070e-01    5.2300e+05 ;    C11 - C12   
    18     19   1    1.3385e-01    3.1012e+05 ;    C12 - F     
    18     20   1    1.3343e-01    4.7647e+05 ;    C12 - C13   
    20     21   1    1.7308e-01    2.6886e+05 ;    C13 - CL    
    20     22   1    1.3070e-01    5.2300e+05 ;    C13 - C14   
    23     24   1    1.3181e-01    3.7447e+05 ;     O1 - C15   
    24     25   1    1.1983e-01    7.7295e+05 ;    C15 - C16   
    25     26   1    1.1983e-01    7.7295e+05 ;    C16 - C17   
    26     27   1    1.3475e-01    3.9689e+05 ;    C17 - N3    
    27     28   1    1.3475e-01    3.9689e+05 ;     N3 - C18   
    27     32   1    1.3475e-01    3.9689e+05 ;     N3 - C21   
    28     29   1    1.1983e-01    7.7295e+05 ;    C18 - C19   
    29     30   1    1.3181e-01    3.7447e+05 ;    C19 - O2    
    30     31   1    1.3181e-01    3.7447e+05 ;     O2 - C20   
    31     32   1    1.1983e-01    7.7295e+05 ;    C20 - C21   

[ pairs ]
;   ai     aj    funct
     1      4      1 ;      C - N     
     1      8      1 ;      C - C5    
     1     24      1 ;      C - C15   
     2      5      1 ;     C1 - C3    
     2      7      1 ;     C1 - C4    
     2      9      1 ;     C1 - C6    
     2     11      1 ;     C1 - C8    
     2     23      1 ;     C1 - O1    
     3      6      1 ;     C2 - N1    
     3     13      1 ;     C2 - N2    
     4      7      1 ;      N - C4    
     4      9      1 ;      N - C6    
     5      8      1 ;     C3 - C5    
     5     13      1 ;     C3 - N2    
     6      9      1 ;     N1 - C6    
     6     14      1 ;     N1 - H     
     6     15      1 ;     N1 - C9    
     7     10      1 ;     C4 - C7    
     7     16      1 ;     C4 - C10   
     7     22      1 ;     C4 - C14   
     8     14      1 ;     C5 - H     
     8     15      1 ;     C5 - C9    
     8     23      1 ;     C5 - O1    
     9     13      1 ;     C6 - N2    
     9     24      1 ;     C6 - C15   
    10      3      1 ;     C7 - C2    
    10     11      1 ;     C7 - C8    
    10     25      1 ;     C7 - C16   
    12      3      1 ;      O - C2    
    12      9      1 ;      O - C6    
    12     23      1 ;      O - O1    
    13     17      1 ;     N2 - C11   
    13     20      1 ;     N2 - C13   
    14     16      1 ;      H - C10   
    14     22      1 ;      H - C14   
    15     18      1 ;     C9 - C12   
    15     21      1 ;     C9 - CL    
    16     19      1 ;    C10 - F     
    16     20      1 ;    C10 - C13   
    17     21      1 ;    C11 - CL    
    17     22      1 ;    C11 - C14   
    19     21      1 ;      F - CL    
    19     22      1 ;      F - C14   
    23     26      1 ;     O1 - C17   
    24     27      1 ;    C15 - N3    
    25     28      1 ;    C16 - C18   
    25     32      1 ;    C16 - C21   
    26     29      1 ;    C17 - C19   
    26     31      1 ;    C17 - C20   
    27     30      1 ;     N3 - O2    
    28     31      1 ;    C18 - C20   
    29     32      1 ;    C19 - C21   

[ angles ]
;   ai     aj     ak    funct   theta         cth
     1      2      3      1    1.7937e+02    4.8785e+02 ;      C - C1     - C2    
     1     10      9      1    1.2162e+02    5.8660e+02 ;      C - C7     - C6    
     1     10     23      1    1.2187e+02    5.9162e+02 ;      C - C7     - O1    
     1     12     11      1    1.1408e+02    5.5680e+02 ;      C - O      - C8    
     2      1     10      1    1.2162e+02    5.8660e+02 ;     C1 - C      - C7    
     2      1     12      1    1.1591e+02    6.1257e+02 ;     C1 - C      - O     
     2      3      4      1    1.1530e+02    6.2942e+02 ;     C1 - C2     - N     
     2      3      8      1    1.2162e+02    5.8660e+02 ;     C1 - C2     - C5    
     3      4      5      1    1.1964e+02    6.1019e+02 ;     C2 - N      - C3    
     3      8      7      1    1.2181e+02    5.7990e+02 ;     C2 - C5     - C4    
     3      8      9      1    1.2162e+02    5.8660e+02 ;     C2 - C5     - C6    
     4      3      8      1    1.2601e+02    5.9580e+02 ;      N - C2     - C5    
     4      5      6      1    1.8000e+02    5.5815e+02 ;      N - C3     - N1    
     5      6      7      1    1.1964e+02    6.1019e+02 ;     C3 - N1     - C4    
     6      7      8      1    1.2601e+02    5.9580e+02 ;     N1 - C4     - C5    
     6      7     13      1    1.2427e+02    6.0082e+02 ;     N1 - C4     - N2    
     7      8      9      1    1.2162e+02    5.8660e+02 ;     C4 - C5     - C6    
     7     13     14      1    1.1938e+02    4.1087e+02 ;     C4 - N2     - H     
     7     13     15      1    1.2468e+02    5.5396e+02 ;     C4 - N2     - C9    
     8      7     13      1    1.2455e+02    5.8660e+02 ;     C5 - C4     - N2    
     8      9     10      1    1.7937e+02    4.8785e+02 ;     C5 - C6     - C7    
     9     10     23      1    1.1591e+02    6.1257e+02 ;     C6 - C7     - O1    
    10      1     12      1    1.2187e+02    5.9162e+02 ;     C7 - C      - O     
    10     23     24      1    1.1408e+02    5.5680e+02 ;     C7 - O1     - C15   
    13     15     16      1    1.1762e+02    6.0937e+02 ;     N2 - C9     - C10   
    13     15     22      1    1.1762e+02    6.0937e+02 ;     N2 - C9     - C14   
    14     13     15      1    1.1938e+02    4.1087e+02 ;      H - N2     - C9    
    15     16     17      1    1.8000e+02    5.0626e+02 ;     C9 - C10    - C11   
    15     22     20      1    1.7937e+02    4.8785e+02 ;     C9 - C14    - C13   
    16     15     22      1    1.1677e+02    6.0501e+02 ;    C10 - C9     - C14   
    16     17     18      1    1.8000e+02    5.0626e+02 ;    C10 - C11    - C12   
    17     18     19      1    1.2490e+02    5.6902e+02 ;    C11 - C12    - F     
    17     18     20      1    1.2162e+02    5.8660e+02 ;    C11 - C12    - C13   
    18     20     21      1    1.2311e+02    4.8534e+02 ;    C12 - C13    - CL    
    18     20     22      1    1.2162e+02    5.8660e+02 ;    C12 - C13    - C14   
    19     18     20      1    1.2287e+02    5.6819e+02 ;      F - C12    - C13   
    21     20     22      1    1.2490e+02    5.6902e+02 ;     CL - C13    - C14   
    23     24     25      1    1.7693e+02    5.2300e+02 ;     O1 - C15    - C16   
    24     25     26      1    1.8000e+02    5.3137e+02 ;    C15 - C16    - C17   
    25     26     27      1    1.8000e+02    5.0877e+02 ;    C16 - C17    - N3    
    26     27     28      1    1.2334e+02    5.5396e+02 ;    C17 - N3     - C18   
    26     27     32      1    1.2334e+02    5.5396e+02 ;    C17 - N3     - C21   
    27     28     29      1    1.8000e+02    5.0877e+02 ;     N3 - C18    - C19   
    27     32     31      1    1.8000e+02    5.0877e+02 ;     N3 - C21    - C20   
    28     27     32      1    1.2334e+02    5.5396e+02 ;    C18 - N3     - C21   
    28     29     30      1    1.7693e+02    5.2300e+02 ;    C18 - C19    - O2    
    29     30     31      1    1.1502e+02    5.6317e+02 ;    C19 - O2     - C20   
    30     31     32      1    1.7693e+02    5.2300e+02 ;     O2 - C20    - C21   

[ dihedrals ] ; propers
; for gromacs 4.5 or higher, using funct 9
;    i      j      k      l   func   phase     kd      pn
     1      2      3      4      9   180.00   0.00000   2 ;      C-    C1-    C2-     N
     1      2      3      8      9   180.00   0.00000   2 ;      C-    C1-    C2-    C5
     1     10      9      8      9   180.00   0.00000   2 ;      C-    C7-    C6-    C5
     1     10     23     24      9   180.00   4.39320   2 ;      C-    C7-    O1-   C15
     2      1     10      9      9   180.00  27.82360   2 ;     C1-     C-    C7-    C6
     2      1     10     23      9   180.00  27.82360   2 ;     C1-     C-    C7-    O1
     2      1     12     11      9   180.00   4.39320   2 ;     C1-     C-     O-    C8
     2      3      4      5      9   180.00  17.36360   2 ;     C1-    C2-     N-    C3
     2      3      8      7      9   180.00  27.82360   2 ;     C1-    C2-    C5-    C4
     2      3      8      9      9   180.00  27.82360   2 ;     C1-    C2-    C5-    C6
     3      4      5      6      9   180.00   0.00000   2 ;     C2-     N-    C3-    N1
     3      8      7      6      9   180.00  27.82360   2 ;     C2-    C5-    C4-    N1
     3      8      7     13      9   180.00  27.82360   2 ;     C2-    C5-    C4-    N2
     3      8      9     10      9   180.00   0.00000   2 ;     C2-    C5-    C6-    C7
     4      3      8      7      9   180.00  27.82360   2 ;      N-    C2-    C5-    C4
     4      3      8      9      9   180.00  27.82360   2 ;      N-    C2-    C5-    C6
     4      5      6      7      9   180.00   0.00000   2 ;      N-    C3-    N1-    C4
     5      4      3      8      9   180.00  17.36360   2 ;     C3-     N-    C2-    C5
     5      6      7      8      9   180.00  17.36360   2 ;     C3-    N1-    C4-    C5
     5      6      7     13      9   180.00  17.36360   2 ;     C3-    N1-    C4-    N2
     6      7      8      9      9   180.00  27.82360   2 ;     N1-    C4-    C5-    C6
     6      7     13     14      9   180.00   1.25520   2 ;     N1-    C4-    N2-     H
     6      7     13     15      9   180.00   1.25520   2 ;     N1-    C4-    N2-    C9
     7      8      9     10      9   180.00   0.00000   2 ;     C4-    C5-    C6-    C7
     7     13     15     16      9   180.00   1.25520   2 ;     C4-    N2-    C9-   C10
     7     13     15     22      9   180.00   1.25520   2 ;     C4-    N2-    C9-   C14
     8      7     13     14      9   180.00   1.25520   2 ;     C5-    C4-    N2-     H
     8      7     13     15      9   180.00   1.25520   2 ;     C5-    C4-    N2-    C9
     8      9     10     23      9   180.00   0.00000   2 ;     C5-    C6-    C7-    O1
     9      8      7     13      9   180.00  27.82360   2 ;     C6-    C5-    C4-    N2
     9     10     23     24      9   180.00   4.39320   2 ;     C6-    C7-    O1-   C15
    10      1      2      3      9   180.00   0.00000   2 ;     C7-     C-    C1-    C2
    10      1     12     11      9   180.00   4.39320   2 ;     C7-     C-     O-    C8
    10     23     24     25      9   180.00   0.00000   2 ;     C7-    O1-   C15-   C16
    12      1      2      3      9   180.00   0.00000   2 ;      O-     C-    C1-    C2
    12      1     10      9      9   180.00  27.82360   2 ;      O-     C-    C7-    C6
    12      1     10     23      9   180.00  27.82360   2 ;      O-     C-    C7-    O1
    13     15     16     17      9   180.00   0.00000   2 ;     N2-    C9-   C10-   C11
    13     15     22     20      9   180.00   0.00000   2 ;     N2-    C9-   C14-   C13
    14     13     15     16      9   180.00   1.25520   2 ;      H-    N2-    C9-   C10
    14     13     15     22      9   180.00   1.25520   2 ;      H-    N2-    C9-   C14
    15     16     17     18      9   180.00   0.00000   2 ;     C9-   C10-   C11-   C12
    15     22     20     18      9   180.00   0.00000   2 ;     C9-   C14-   C13-   C12
    15     22     20     21      9   180.00   0.00000   2 ;     C9-   C14-   C13-    CL
    16     15     22     20      9   180.00   0.00000   2 ;    C10-    C9-   C14-   C13
    16     17     18     19      9   180.00   0.00000   2 ;    C10-   C11-   C12-     F
    16     17     18     20      9   180.00   0.00000   2 ;    C10-   C11-   C12-   C13
    17     16     15     22      9   180.00   0.00000   2 ;    C11-   C10-    C9-   C14
    17     18     20     21      9   180.00  27.82360   2 ;    C11-   C12-   C13-    CL
    17     18     20     22      9   180.00  27.82360   2 ;    C11-   C12-   C13-   C14
    19     18     20     21      9   180.00  27.82360   2 ;      F-   C12-   C13-    CL
    19     18     20     22      9   180.00  27.82360   2 ;      F-   C12-   C13-   C14
    23     24     25     26      9   180.00   0.00000   2 ;     O1-   C15-   C16-   C17
    24     25     26     27      9   180.00   0.00000   2 ;    C15-   C16-   C17-    N3
    25     26     27     28      9   180.00   0.00000   2 ;    C16-   C17-    N3-   C18
    25     26     27     32      9   180.00   0.00000   2 ;    C16-   C17-    N3-   C21
    26     27     28     29      9   180.00   0.00000   2 ;    C17-    N3-   C18-   C19
    26     27     32     31      9   180.00   0.00000   2 ;    C17-    N3-   C21-   C20
    27     28     29     30      9   180.00   0.00000   2 ;     N3-   C18-   C19-    O2
    27     32     31     30      9   180.00   0.00000   2 ;     N3-   C21-   C20-    O2
    28     27     32     31      9   180.00   0.00000   2 ;    C18-    N3-   C21-   C20
    28     29     30     31      9   180.00   0.00000   2 ;    C18-   C19-    O2-   C20
    29     28     27     32      9   180.00   0.00000   2 ;    C19-   C18-    N3-   C21
    29     30     31     32      9   180.00   0.00000   2 ;    C19-    O2-   C20-   C21

[ dihedrals ] ; impropers
; treated as propers in GROMACS to use correct AMBER analytical function
;    i      j      k      l   func   phase     kd      pn
     2      8      3      4      4   180.00   4.60240   2 ;     C1-    C5-    C2-     N
     8      6      7     13      4   180.00   4.60240   2 ;     C5-    N1-    C4-    N2
     9      1     10     23      4   180.00   4.60240   2 ;     C6-     C-    C7-    O1
     9      3      8      7      4   180.00   4.60240   2 ;     C6-    C2-    C5-    C4
    12      1     10      2      4   180.00   4.60240   2 ;      O-     C-    C7-    C1
    16     22     15     13      4   180.00   4.60240   2 ;    C10-   C14-    C9-    N2
    17     20     18     19      4   180.00   4.60240   2 ;    C11-   C13-   C12-     F
    22     18     20     21      4   180.00   4.60240   2 ;    C14-   C12-   C13-    CL
#ifdef POSRES
#include "posre_ligand.itp"
#endif

