[ atomtypes ]
;name   bond_type     mass     charge   ptype   sigma      epsilon
c      c         12.01000   0.000000   A   3.39967e-01  3.59824e-01
c1     c1        12.01000   0.000000   A   3.39967e-01  4.59820e-01
c2     c2        12.01000   0.000000   A   3.39967e-01  4.59820e-01
c3     c3        12.01000   0.000000   A   3.39967e-01  4.59820e-01
ca     ca        12.01000   0.000000   A   3.39967e-01  3.59824e-01
cb     cb        12.01000   0.000000   A   3.39967e-01  3.59824e-01
cc     cc        12.01000   0.000000   A   3.39967e-01  3.59824e-01
cd     cd        12.01000   0.000000   A   3.39967e-01  3.59824e-01
ce     ce        12.01000   0.000000   A   3.39967e-01  3.59824e-01
cf     cf        12.01000   0.000000   A   3.39967e-01  3.59824e-01
cg     cg        12.01000   0.000000   A   3.39967e-01  3.59824e-01
ch     ch        12.01000   0.000000   A   3.39967e-01  3.59824e-01
ci     ci        12.01000   0.000000   A   3.39967e-01  3.59824e-01
cj     cj        12.01000   0.000000   A   3.39967e-01  3.59824e-01
ck     ck        12.01000   0.000000   A   3.39967e-01  3.59824e-01
cm     cm        12.01000   0.000000   A   3.39967e-01  3.59824e-01
cn     cn        12.01000   0.000000   A   3.39967e-01  3.59824e-01
cp     cp        12.01000   0.000000   A   3.39967e-01  3.59824e-01
cq     cq        12.01000   0.000000   A   3.39967e-01  3.59824e-01
cr     cr        12.01000   0.000000   A   3.39967e-01  3.59824e-01
cs     cs        12.01000   0.000000   A   3.39967e-01  3.59824e-01
cu     cu        12.01000   0.000000   A   3.39967e-01  3.59824e-01
cv     cv        12.01000   0.000000   A   3.39967e-01  3.59824e-01
cw     cw        12.01000   0.000000   A   3.39967e-01  3.59824e-01
cx     cx        12.01000   0.000000   A   3.39967e-01  3.59824e-01
cy     cy        12.01000   0.000000   A   3.39967e-01  3.59824e-01
cz     cz        12.01000   0.000000   A   3.39967e-01  3.59824e-01
n      n         14.01000   0.000000   A   3.25000e-01  7.11280e-01
n1     n1        14.01000   0.000000   A   3.25000e-01  7.11280e-01
n2     n2        14.01000   0.000000   A   3.25000e-01  7.11280e-01
n3     n3        14.01000   0.000000   A   3.25000e-01  7.11280e-01
n4     n4        14.01000   0.000000   A   3.25000e-01  7.11280e-01
na     na        14.01000   0.000000   A   3.25000e-01  7.11280e-01
nb     nb        14.01000   0.000000   A   3.25000e-01  7.11280e-01
nc     nc        14.01000   0.000000   A   3.25000e-01  7.11280e-01
nd     nd        14.01000   0.000000   A   3.25000e-01  7.11280e-01
ne     ne        14.01000   0.000000   A   3.25000e-01  7.11280e-01
nf     nf        14.01000   0.000000   A   3.25000e-01  7.11280e-01
nh     nh        14.01000   0.000000   A   3.25000e-01  7.11280e-01
ni     ni        14.01000   0.000000   A   3.25000e-01  7.11280e-01
nj     nj        14.01000   0.000000   A   3.25000e-01  7.11280e-01
nk     nk        14.01000   0.000000   A   3.25000e-01  7.11280e-01
nl     nl        14.01000   0.000000   A   3.25000e-01  7.11280e-01
nm     nm        14.01000   0.000000   A   3.25000e-01  7.11280e-01
nn     nn        14.01000   0.000000   A   3.25000e-01  7.11280e-01
no     no        14.01000   0.000000   A   3.25000e-01  7.11280e-01
np     np        14.01000   0.000000   A   3.25000e-01  7.11280e-01
nq     nq        14.01000   0.000000   A   3.25000e-01  7.11280e-01
o      o         16.00000   0.000000   A   2.95992e-01  8.78640e-01
oh     oh        16.00000   0.000000   A   3.06647e-01  8.80314e-01
os     os        16.00000   0.000000   A   3.02900e-01  7.11280e-01
f      f         19.00000   0.000000   A   3.11815e-01  2.55224e-01
cl     cl        35.45000   0.000000   A   4.40104e-01  4.18400e-01
br     br        79.90000   0.000000   A   4.25000e-01  1.04600e+00
i      i        126.90000   0.000000   A   3.95000e-01  1.67360e+00
p      p         30.97000   0.000000   A   3.74186e-01  8.36800e-01
s      s         32.06000   0.000000   A   3.56359e-01  1.04600e+00
sh     sh        32.06000   0.000000   A   3.56359e-01  1.04600e+00
ss     ss        32.06000   0.000000   A   3.56359e-01  1.04600e+00
h      h          1.00800   0.000000   A   2.64953e-01  6.56888e-02
h1     h1         1.00800   0.000000   A   1.38700e-01  6.56888e-02
h2     h2         1.00800   0.000000   A   1.28700e-01  6.56888e-02
h3     h3         1.00800   0.000000   A   1.18700e-01  6.56888e-02
h4     h4         1.00800   0.000000   A   1.40900e-01  6.56888e-02
h5     h5         1.00800   0.000000   A   1.35900e-01  6.56888e-02
ha     ha         1.00800   0.000000   A   2.47135e-01  6.56888e-02
hc     hc         1.00800   0.000000   A   2.64953e-01  6.56888e-02
hn     hn         1.00800   0.000000   A   1.06908e-01  6.56888e-02
ho     ho         1.00800   0.000000   A   0.00000e+00  0.00000e+00
hp     hp         1.00800   0.000000   A   2.08300e-01  6.56888e-02
hs     hs         1.00800   0.000000   A   1.06908e-01  6.56888e-02
hw     hw         1.00800   0.000000   A   0.00000e+00  0.00000e+00
hx     hx         1.00800   0.000000   A   2.64953e-01  6.56888e-02
ow     ow        16.00000   0.000000   A   3.15061e-01  6.50194e-01
s6     s6        32.06000   0.000000   A   3.55600e-01  1.04600e+00
